version 2
run General-0-20140225-00:03:17-4904
attr configname General
attr datetime 20140225-00:03:17
attr experiment General
attr inifile omnetpp.ini
attr iterationvars ""
attr iterationvars2 $repetition=0
attr measurement ""
attr network hnocs.topologies.Robot_mesh_2x2_rtp
attr processid 4904
attr repetition 0
attr replication #0
attr resultdir results
attr runnumber 0
attr seedset 0

vector 20  Robot_mesh_2x2_rtp.core0.source  "Task #0"  ETV
vector 21  Robot_mesh_2x2_rtp.core0.source  "Task #2"  ETV
vector 0  Robot_mesh_2x2_rtp.core0.source  dstId  ETV
vector 22  Robot_mesh_2x2_rtp.core0.source  "Task #7"  ETV
vector 23  Robot_mesh_2x2_rtp.core1.source  "Task #1"  ETV
vector 24  Robot_mesh_2x2_rtp.core1.source  "Task #16"  ETV
vector 5  Robot_mesh_2x2_rtp.core1.source  dstId  ETV
vector 25  Robot_mesh_2x2_rtp.core0.source  "edge #1"  ETV
vector 26  Robot_mesh_2x2_rtp.core1.source  "edge #22"  ETV
vector 27  Robot_mesh_2x2_rtp.core0.source  "edge #2"  ETV
vector 28  Robot_mesh_2x2_rtp.core1.source  "Task #3"  ETV
vector 29  Robot_mesh_2x2_rtp.core1.source  "edge #4"  ETV
vector 4  Robot_mesh_2x2_rtp.router0.port[2].inPort  Inport_total_Queue_Length  ETV
vector 9  Robot_mesh_2x2_rtp.router1.port[2].inPort  Inport_total_Queue_Length  ETV
vector 11  Robot_mesh_2x2_rtp.core2.sink  end-to-end-latency-ns  ETV
vector 16  Robot_mesh_2x2_rtp.core3.sink  end-to-end-latency-ns  ETV
vector 12  Robot_mesh_2x2_rtp.router2.port[0].inPort  Inport_total_Queue_Length  ETV
vector 17  Robot_mesh_2x2_rtp.router3.port[0].inPort  Inport_total_Queue_Length  ETV
vector 30  Robot_mesh_2x2_rtp.core0.source  "edge #3"  ETV
vector 31  Robot_mesh_2x2_rtp.core2.source  "Task #4"  ETV
vector 10  Robot_mesh_2x2_rtp.core2.source  dstId  ETV
vector 32  Robot_mesh_2x2_rtp.core2.source  "Task #9"  ETV
vector 7  Robot_mesh_2x2_rtp.router1.port[0].inPort  Inport_total_Queue_Length  ETV
vector 33  Robot_mesh_2x2_rtp.core2.source  "edge #7"  ETV
vector 14  Robot_mesh_2x2_rtp.router2.port[2].inPort  Inport_total_Queue_Length  ETV
vector 18  Robot_mesh_2x2_rtp.router3.port[1].inPort  Inport_total_Queue_Length  ETV
vector 34  Robot_mesh_2x2_rtp.core0.source  "edge #5"  ETV
vector 35  Robot_mesh_2x2_rtp.core3.source  "Task #5"  ETV
vector 36  Robot_mesh_2x2_rtp.core3.source  "Task #12"  ETV
vector 15  Robot_mesh_2x2_rtp.core3.source  dstId  ETV
vector 37  Robot_mesh_2x2_rtp.core3.source  "Task #13"  ETV
vector 38  Robot_mesh_2x2_rtp.core3.source  "edge #33"  ETV
vector 19  Robot_mesh_2x2_rtp.router3.port[2].inPort  Inport_total_Queue_Length  ETV
vector 13  Robot_mesh_2x2_rtp.router2.port[1].inPort  Inport_total_Queue_Length  ETV
vector 39  Robot_mesh_2x2_rtp.core3.source  "edge #35"  ETV
vector 40  Robot_mesh_2x2_rtp.core2.source  "Task #27"  ETV
vector 8  Robot_mesh_2x2_rtp.router1.port[1].inPort  Inport_total_Queue_Length  ETV
vector 2  Robot_mesh_2x2_rtp.router0.port[0].inPort  Inport_total_Queue_Length  ETV
vector 1  Robot_mesh_2x2_rtp.core0.sink  end-to-end-latency-ns  ETV
vector 41  Robot_mesh_2x2_rtp.core0.source  "edge #17"  ETV
vector 42  Robot_mesh_2x2_rtp.core3.source  "Task #6"  ETV
vector 6  Robot_mesh_2x2_rtp.core1.sink  end-to-end-latency-ns  ETV
vector 43  Robot_mesh_2x2_rtp.core3.source  "edge #14"  ETV
vector 44  Robot_mesh_2x2_rtp.core2.source  "edge #10"  ETV
vector 45  Robot_mesh_2x2_rtp.core3.source  "Task #8"  ETV
vector 46  Robot_mesh_2x2_rtp.core3.source  "Task #23"  ETV
vector 47  Robot_mesh_2x2_rtp.core3.source  "Task #25"  ETV
vector 3  Robot_mesh_2x2_rtp.router0.port[1].inPort  Inport_total_Queue_Length  ETV
vector 48  Robot_mesh_2x2_rtp.core3.source  "edge #16"  ETV
vector 49  Robot_mesh_2x2_rtp.core1.source  "Task #14"  ETV
vector 50  Robot_mesh_2x2_rtp.core1.source  "edge #21"  ETV
vector 51  Robot_mesh_2x2_rtp.core3.source  "edge #19"  ETV
vector 52  Robot_mesh_2x2_rtp.core1.source  "Task #15"  ETV
vector 53  Robot_mesh_2x2_rtp.core2.source  "edge #11"  ETV
vector 54  Robot_mesh_2x2_rtp.core0.source  "Task #10"  ETV
vector 55  Robot_mesh_2x2_rtp.core1.source  "edge #127"  ETV
vector 56  Robot_mesh_2x2_rtp.core3.source  "edge #23"  ETV
vector 57  Robot_mesh_2x2_rtp.core2.source  "Task #17"  ETV
vector 58  Robot_mesh_2x2_rtp.core3.source  "edge #25"  ETV
vector 59  Robot_mesh_2x2_rtp.core2.source  "Task #19"  ETV
vector 60  Robot_mesh_2x2_rtp.core0.source  "Task #86"  ETV
vector 61  Robot_mesh_2x2_rtp.core3.source  "edge #26"  ETV
vector 62  Robot_mesh_2x2_rtp.core2.source  "Task #20"  ETV
vector 63  Robot_mesh_2x2_rtp.core2.source  "Task #36"  ETV
vector 64  Robot_mesh_2x2_rtp.core2.source  "edge #121"  ETV
vector 65  Robot_mesh_2x2_rtp.core1.source  "Task #11"  ETV
vector 66  Robot_mesh_2x2_rtp.core1.source  "edge #20"  ETV
vector 67  Robot_mesh_2x2_rtp.core3.source  "edge #27"  ETV
vector 68  Robot_mesh_2x2_rtp.core1.source  "Task #21"  ETV
vector 69  Robot_mesh_2x2_rtp.core1.source  "edge #47"  ETV
vector 70  Robot_mesh_2x2_rtp.core3.source  "Task #18"  ETV
vector 71  Robot_mesh_2x2_rtp.core2.source  "edge #41"  ETV
vector 72  Robot_mesh_2x2_rtp.core3.source  "edge #49"  ETV
vector 73  Robot_mesh_2x2_rtp.core0.source  "Task #22"  ETV
vector 74  Robot_mesh_2x2_rtp.core0.source  "edge #48"  ETV
vector 75  Robot_mesh_2x2_rtp.core3.source  "Task #37"  ETV
vector 76  Robot_mesh_2x2_rtp.core3.source  "edge #29"  ETV
vector 77  Robot_mesh_2x2_rtp.core2.source  "edge #42"  ETV
vector 78  Robot_mesh_2x2_rtp.core0.source  "Task #31"  ETV
vector 79  Robot_mesh_2x2_rtp.core0.source  "edge #63"  ETV
vector 80  Robot_mesh_2x2_rtp.core3.source  "edge #38"  ETV
vector 81  Robot_mesh_2x2_rtp.core0.source  "Task #24"  ETV
vector 82  Robot_mesh_2x2_rtp.core2.source  "Task #48"  ETV
vector 83  Robot_mesh_2x2_rtp.core3.source  "edge #31"  ETV
vector 84  Robot_mesh_2x2_rtp.core2.source  "edge #53"  ETV
vector 85  Robot_mesh_2x2_rtp.core1.source  "Task #32"  ETV
vector 86  Robot_mesh_2x2_rtp.core1.source  "edge #55"  ETV
vector 87  Robot_mesh_2x2_rtp.core3.source  "edge #36"  ETV
vector 88  Robot_mesh_2x2_rtp.core2.source  "Task #26"  ETV
vector 89  Robot_mesh_2x2_rtp.core3.source  "edge #37"  ETV
vector 90  Robot_mesh_2x2_rtp.core0.source  "Task #28"  ETV
vector 91  Robot_mesh_2x2_rtp.core0.source  "edge #114"  ETV
vector 92  Robot_mesh_2x2_rtp.core2.source  "edge #43"  ETV
vector 93  Robot_mesh_2x2_rtp.core1.source  "Task #29"  ETV
vector 94  Robot_mesh_2x2_rtp.core0.source  "edge #118"  ETV
vector 95  Robot_mesh_2x2_rtp.core2.source  "edge #44"  ETV
vector 96  Robot_mesh_2x2_rtp.core1.source  "Task #33"  ETV
vector 97  Robot_mesh_2x2_rtp.core1.source  "Task #40"  ETV
vector 98  Robot_mesh_2x2_rtp.core1.source  "edge #61"  ETV
vector 99  Robot_mesh_2x2_rtp.core1.source  "Task #81"  ETV
vector 100  Robot_mesh_2x2_rtp.core1.source  "edge #62"  ETV
vector 101  Robot_mesh_2x2_rtp.core3.source  "Task #46"  ETV
vector 102  Robot_mesh_2x2_rtp.core3.source  "edge #69"  ETV
vector 103  Robot_mesh_2x2_rtp.core2.source  "edge #45"  ETV
vector 104  Robot_mesh_2x2_rtp.core1.source  "Task #34"  ETV
vector 105  Robot_mesh_2x2_rtp.core1.source  "edge #122"  ETV
vector 106  Robot_mesh_2x2_rtp.core0.source  "Task #47"  ETV
vector 107  Robot_mesh_2x2_rtp.core0.source  "edge #74"  ETV
vector 108  Robot_mesh_2x2_rtp.core1.source  "edge #57"  ETV
vector 109  Robot_mesh_2x2_rtp.core2.source  "edge #97"  ETV
vector 110  Robot_mesh_2x2_rtp.core3.source  "Task #35"  ETV
vector 111  Robot_mesh_2x2_rtp.core3.source  "Task #41"  ETV
vector 112  Robot_mesh_2x2_rtp.core1.source  "edge #58"  ETV
vector 113  Robot_mesh_2x2_rtp.core0.source  "Task #42"  ETV
vector 114  Robot_mesh_2x2_rtp.core0.source  "edge #67"  ETV
vector 115  Robot_mesh_2x2_rtp.core1.source  "edge #59"  ETV
vector 116  Robot_mesh_2x2_rtp.core3.source  "Task #43"  ETV
vector 117  Robot_mesh_2x2_rtp.core3.source  "edge #68"  ETV
vector 118  Robot_mesh_2x2_rtp.core2.source  "edge #99"  ETV
vector 119  Robot_mesh_2x2_rtp.core0.source  "Task #69"  ETV
vector 120  Robot_mesh_2x2_rtp.core0.source  "edge #105"  ETV
vector 121  Robot_mesh_2x2_rtp.core1.source  "Task #50"  ETV
vector 122  Robot_mesh_2x2_rtp.core1.source  "Task #58"  ETV
vector 123  Robot_mesh_2x2_rtp.core1.source  "Task #51"  ETV
vector 124  Robot_mesh_2x2_rtp.core1.source  "edge #60"  ETV
vector 125  Robot_mesh_2x2_rtp.core0.source  "Task #44"  ETV
vector 126  Robot_mesh_2x2_rtp.core0.source  "Task #53"  ETV
vector 127  Robot_mesh_2x2_rtp.core0.source  "edge #70"  ETV
vector 128  Robot_mesh_2x2_rtp.core2.source  "edge #39"  ETV
vector 129  Robot_mesh_2x2_rtp.core0.source  "edge #85"  ETV
vector 130  Robot_mesh_2x2_rtp.core3.source  "Task #52"  ETV
vector 131  Robot_mesh_2x2_rtp.core3.source  "edge #83"  ETV
vector 132  Robot_mesh_2x2_rtp.core0.source  "edge #72"  ETV
vector 133  Robot_mesh_2x2_rtp.core1.source  "Task #30"  ETV
vector 134  Robot_mesh_2x2_rtp.core1.source  "Task #39"  ETV
vector 135  Robot_mesh_2x2_rtp.core1.source  "Task #49"  ETV
vector 136  Robot_mesh_2x2_rtp.core1.source  "edge #77"  ETV
vector 137  Robot_mesh_2x2_rtp.core2.source  "Task #45"  ETV
vector 138  Robot_mesh_2x2_rtp.core2.source  "edge #73"  ETV
vector 139  Robot_mesh_2x2_rtp.core2.source  "Task #54"  ETV
vector 140  Robot_mesh_2x2_rtp.core1.source  "Task #55"  ETV
vector 141  Robot_mesh_2x2_rtp.core1.source  "Task #66"  ETV
vector 142  Robot_mesh_2x2_rtp.core1.source  "edge #86"  ETV
vector 143  Robot_mesh_2x2_rtp.core2.source  "Task #57"  ETV
vector 144  Robot_mesh_2x2_rtp.core2.source  "Task #61"  ETV
vector 145  Robot_mesh_2x2_rtp.core1.source  "edge #79"  ETV
vector 146  Robot_mesh_2x2_rtp.core1.source  "edge #94"  ETV
vector 147  Robot_mesh_2x2_rtp.core0.source  "Task #59"  ETV
vector 148  Robot_mesh_2x2_rtp.core0.source  "edge #82"  ETV
vector 149  Robot_mesh_2x2_rtp.core1.source  "edge #51"  ETV
vector 150  Robot_mesh_2x2_rtp.core1.source  "edge #76"  ETV
vector 151  Robot_mesh_2x2_rtp.core0.source  "Task #38"  ETV
vector 152  Robot_mesh_2x2_rtp.core0.source  "edge #109"  ETV
vector 153  Robot_mesh_2x2_rtp.core3.source  "Task #76"  ETV
vector 154  Robot_mesh_2x2_rtp.core1.source  "edge #96"  ETV
vector 155  Robot_mesh_2x2_rtp.core3.source  "Task #56"  ETV
vector 156  Robot_mesh_2x2_rtp.core3.source  "edge #81"  ETV
vector 157  Robot_mesh_2x2_rtp.core2.source  "Task #60"  ETV
vector 158  Robot_mesh_2x2_rtp.core2.source  "Task #62"  ETV
vector 159  Robot_mesh_2x2_rtp.core2.source  "Task #63"  ETV
vector 160  Robot_mesh_2x2_rtp.core2.source  "Task #64"  ETV
vector 161  Robot_mesh_2x2_rtp.core2.source  "Task #65"  ETV
vector 162  Robot_mesh_2x2_rtp.core2.source  "edge #95"  ETV
vector 163  Robot_mesh_2x2_rtp.core1.source  "edge #93"  ETV
vector 164  Robot_mesh_2x2_rtp.core0.source  "Task #67"  ETV
vector 165  Robot_mesh_2x2_rtp.core0.source  "Task #71"  ETV
vector 166  Robot_mesh_2x2_rtp.core0.source  "Task #72"  ETV
vector 167  Robot_mesh_2x2_rtp.core0.source  "Task #78"  ETV
vector 168  Robot_mesh_2x2_rtp.core0.source  "edge #115"  ETV
vector 169  Robot_mesh_2x2_rtp.core3.source  "Task #68"  ETV
vector 170  Robot_mesh_2x2_rtp.core3.source  "Task #70"  ETV
vector 171  Robot_mesh_2x2_rtp.core3.source  "Task #74"  ETV
vector 172  Robot_mesh_2x2_rtp.core3.source  "edge #108"  ETV
vector 173  Robot_mesh_2x2_rtp.core0.source  "edge #103"  ETV
vector 174  Robot_mesh_2x2_rtp.core1.source  "Task #79"  ETV
vector 175  Robot_mesh_2x2_rtp.core1.source  "Task #80"  ETV
vector 176  Robot_mesh_2x2_rtp.core1.source  "edge #124"  ETV
vector 177  Robot_mesh_2x2_rtp.core0.source  "Task #84"  ETV
vector 178  Robot_mesh_2x2_rtp.core1.source  "Task #73"  ETV
vector 179  Robot_mesh_2x2_rtp.core1.source  "Task #75"  ETV
vector 180  Robot_mesh_2x2_rtp.core1.source  "edge #111"  ETV
vector 181  Robot_mesh_2x2_rtp.core3.source  "Task #77"  ETV
vector 182  Robot_mesh_2x2_rtp.core3.source  "edge #119"  ETV
vector 183  Robot_mesh_2x2_rtp.core0.source  "Task #82"  ETV
vector 184  Robot_mesh_2x2_rtp.core0.source  "Task #83"  ETV
vector 185  Robot_mesh_2x2_rtp.core0.source  "Task #85"  ETV
vector 186  Robot_mesh_2x2_rtp.core0.source  "Task #87"  ETV
25	28	0.0000000025	6
25	67	0.0000000055	6
25	120	0.0000000085	6
25	175	0.0000000115	6
25	230	0.0000000145	6
25	285	0.0000000175	6
25	340	0.0000000205	6
25	395	0.0000000235	6
25	450	0.0000000265	6
25	505	0.0000000295	6
25	560	0.0000000325	6
25	615	0.0000000355	6
25	670	0.0000000385	6
25	725	0.0000000415	6
25	780	0.0000000445	6
25	835	0.0000000475	6
25	890	0.0000000505	6
25	945	0.0000000535	6
25	1000	0.0000000565	6
25	1055	0.0000000595	6
25	1110	0.0000000625	6
25	1165	0.0000000655	6
25	1220	0.0000000685	6
25	1275	0.0000000715	6
25	1330	0.0000000745	6
25	1385	0.0000000775	6
25	1440	0.0000000805	6
25	1495	0.0000000835	6
25	1550	0.0000000865	6
25	1605	0.0000000895	6
25	1660	0.0000000925	6
25	1715	0.0000000955	6
25	1770	0.0000000985	6
25	1825	0.0000001015	6
25	1880	0.0000001045	6
25	1935	0.0000001075	6
25	1990	0.0000001105	6
25	2045	0.0000001135	6
25	2100	0.0000001165	6
25	2155	0.0000001195	6
25	2210	0.0000001225	6
25	2265	0.0000001255	6
25	2320	0.0000001285	6
25	2375	0.0000001315	6
25	2430	0.0000001345	6
25	2485	0.0000001375	6
25	2540	0.0000001405	6
25	2595	0.0000001435	6
25	2650	0.0000001465	6
25	2705	0.0000001495	6
25	2760	0.0000001525	6
25	2815	0.0000001555	6
25	2870	0.0000001585	6
25	2925	0.0000001615	6
25	2980	0.0000001645	6
25	3035	0.0000001675	6
25	3090	0.0000001705	6
25	3145	0.0000001735	6
25	3200	0.0000001765	6
25	3255	0.0000001795	6
25	3310	0.0000001825	6
25	3366	0.0000001855	6
25	3421	0.0000001885	6
25	3476	0.0000001915	6
25	3531	0.0000001945	6
25	3586	0.0000001975	6
25	3642	0.0000002005	6
25	3697	0.0000002035	6
25	3752	0.0000002065	6
25	3807	0.0000002095	6
25	3862	0.0000002125	6
25	3917	0.0000002155	6
25	3972	0.0000002185	6
25	4027	0.0000002215	6
25	4082	0.0000002245	6
25	4137	0.0000002275	6
25	4192	0.0000002305	6
25	4247	0.0000002335	6
25	4302	0.0000002365	6
25	4357	0.0000002395	6
25	4412	0.0000002425	6
25	4467	0.0000002455	6
25	4522	0.0000002485	6
25	4577	0.0000002515	6
25	4632	0.0000002545	6
25	4687	0.0000002575	6
25	4742	0.0000002605	6
25	4797	0.0000002635	6
25	4852	0.0000002665	6
25	4907	0.0000002695	6
25	4962	0.0000002725	6
25	5017	0.0000002755	6
25	5072	0.0000002785	6
25	5127	0.0000002815	6
25	5182	0.0000002845	6
25	5237	0.0000002875	6
25	5292	0.0000002905	6
25	5347	0.0000002935	6
25	5402	0.0000002965	6
25	5457	0.0000002995	6
25	5512	0.0000003025	6
25	5567	0.0000003055	6
25	5622	0.0000003085	6
25	5677	0.0000003115	6
25	5732	0.0000003145	6
25	5787	0.0000003175	6
25	5842	0.0000003205	6
25	5897	0.0000003235	6
25	5952	0.0000003265	6
25	6007	0.0000003295	6
25	6062	0.0000003325	6
25	6117	0.0000003355	6
25	6172	0.0000003385	6
25	6227	0.0000003415	6
25	6282	0.0000003445	6
25	6337	0.0000003475	6
25	6392	0.0000003505	6
25	6447	0.0000003535	6
25	6502	0.0000003565	6
25	6557	0.0000003595	6
25	6612	0.0000003625	6
25	6667	0.0000003655	6
25	6722	0.0000003685	6
25	6771	0.0000003715	6
25	6813	0.0000003745	6
25	6854	0.0000003775	6
25	6895	0.0000003805	6
25	6936	0.0000003835	6
25	6977	0.0000003865	6
25	7018	0.0000003895	6
25	7059	0.0000003925	6
25	7100	0.0000003955	6
25	7141	0.0000003985	6
25	7182	0.0000004015	6
25	7223	0.0000004045	6
25	7264	0.0000004075	6
25	7305	0.0000004105	6
25	7346	0.0000004135	6
25	7387	0.0000004165	6
25	7428	0.0000004195	6
25	7469	0.0000004225	6
25	7510	0.0000004255	6
25	7551	0.0000004285	6
25	7592	0.0000004315	6
25	7633	0.0000004345	6
25	7674	0.0000004375	6
25	7715	0.0000004405	6
25	7756	0.0000004435	6
25	7797	0.0000004465	6
25	7838	0.0000004495	6
25	7879	0.0000004525	6
25	7920	0.0000004555	6
25	7961	0.0000004585	6
25	8002	0.0000004615	6
25	8043	0.0000004645	6
25	8084	0.0000004675	6
25	8125	0.0000004705	6
25	8166	0.0000004735	6
25	8207	0.0000004765	6
25	8248	0.0000004795	6
25	8289	0.0000004825	6
25	8330	0.0000004855	6
25	8371	0.0000004885	6
25	8412	0.0000004915	6
25	8453	0.0000004945	6
25	8494	0.0000004975	6
25	8535	0.0000005005	6
25	8576	0.0000005035	6
25	8617	0.0000005065	6
25	8658	0.0000005095	6
25	8699	0.0000005125	6
25	8740	0.0000005155	6
25	8781	0.0000005185	6
25	8822	0.0000005215	6
25	8863	0.0000005245	6
25	8904	0.0000005275	6
25	8945	0.0000005305	6
25	8986	0.0000005335	6
25	9027	0.0000005365	6
25	9068	0.0000005395	6
25	9109	0.0000005425	6
25	9150	0.0000005455	6
25	9191	0.0000005485	6
25	9232	0.0000005515	6
25	9273	0.0000005545	6
25	9314	0.0000005575	6
25	9355	0.0000005605	6
25	9396	0.0000005635	6
25	9437	0.0000005665	6
25	9478	0.0000005695	6
25	9519	0.0000005725	6
25	9560	0.0000005755	6
25	9601	0.0000005785	6
25	9642	0.0000005815	6
25	9683	0.0000005845	6
25	9724	0.0000005875	6
25	9765	0.0000005905	6
25	9806	0.0000005935	6
25	9847	0.0000005965	6
25	9888	0.0000005995	6
25	9929	0.0000006025	6
25	9970	0.0000006055	6
25	10011	0.0000006085	6
25	10052	0.0000006115	6
25	10093	0.0000006145	6
25	10134	0.0000006175	6
25	10175	0.0000006205	6
25	10216	0.0000006235	6
25	10257	0.0000006265	6
25	10298	0.0000006295	6
25	10339	0.0000006325	6
25	10380	0.0000006355	6
25	10421	0.0000006385	6
25	10462	0.0000006415	6
25	10503	0.0000006445	6
25	10544	0.0000006475	6
25	10585	0.0000006505	6
25	10626	0.0000006535	6
25	10667	0.0000006565	6
25	10709	0.0000006595	6
25	10750	0.0000006625	6
25	10791	0.0000006655	6
25	10832	0.0000006685	6
25	10873	0.0000006715	6
25	10914	0.0000006745	6
25	10955	0.0000006775	6
25	10996	0.0000006805	6
25	11037	0.0000006835	6
25	11078	0.0000006865	6
25	11119	0.0000006895	6
25	11160	0.0000006925	6
25	11201	0.0000006955	6
25	11242	0.0000006985	6
25	11283	0.0000007015	6
25	11324	0.0000007045	6
25	11365	0.0000007075	6
25	11406	0.0000007105	6
25	11447	0.0000007135	6
25	11488	0.0000007165	6
25	11529	0.0000007195	6
25	11570	0.0000007225	6
25	11611	0.0000007255	6
25	11652	0.0000007285	6
25	11693	0.0000007315	6
25	11734	0.0000007345	6
25	11775	0.0000007375	6
25	11816	0.0000007405	6
25	11857	0.0000007435	6
25	11898	0.0000007465	6
25	11939	0.0000007495	6
25	11980	0.0000007525	6
25	12021	0.0000007555	6
25	12062	0.0000007585	6
25	12103	0.0000007615	6
25	12144	0.0000007645	6
25	12185	0.0000007675	6
25	12226	0.0000007705	6
25	12267	0.0000007735	6
25	12308	0.0000007765	6
25	12349	0.0000007795	6
25	12390	0.0000007825	6
25	12431	0.0000007855	6
25	12472	0.0000007885	6
25	12513	0.0000007915	6
25	12554	0.0000007945	6
25	12595	0.0000007975	6
25	12636	0.0000008005	6
25	12677	0.0000008035	6
25	12718	0.0000008065	6
25	12759	0.0000008095	6
25	12800	0.0000008125	6
25	12841	0.0000008155	6
25	12882	0.0000008185	6
25	12923	0.0000008215	6
25	12964	0.0000008245	6
25	13005	0.0000008275	6
25	13046	0.0000008305	6
25	13087	0.0000008335	6
25	13128	0.0000008365	6
25	13169	0.0000008395	6
25	13210	0.0000008425	6
25	13251	0.0000008455	6
25	13292	0.0000008485	6
25	13333	0.0000008515	6
25	13374	0.0000008545	6
25	13415	0.0000008575	6
25	13456	0.0000008605	6
25	13497	0.0000008635	6
25	13538	0.0000008665	6
25	13579	0.0000008695	6
25	13620	0.0000008725	6
25	13661	0.0000008755	6
25	13702	0.0000008785	6
25	13743	0.0000008815	6
25	13784	0.0000008845	6
25	13825	0.0000008875	6
25	13866	0.0000008905	6
25	13907	0.0000008935	6
25	13948	0.0000008965	6
25	13989	0.0000008995	6
25	14030	0.0000009025	6
25	14071	0.0000009055	6
25	14112	0.0000009085	6
25	14153	0.0000009115	6
25	14194	0.0000009145	6
25	14235	0.0000009175	6
25	14276	0.0000009205	6
25	14317	0.0000009235	6
25	14358	0.0000009265	6
25	14399	0.0000009295	6
25	14440	0.0000009325	6
25	14481	0.0000009355	6
25	14522	0.0000009385	6
25	14563	0.0000009415	6
25	14604	0.0000009445	6
25	14645	0.0000009475	6
25	14686	0.0000009505	6
25	14727	0.0000009535	6
25	14768	0.0000009565	6
25	14809	0.0000009595	6
25	14850	0.0000009625	6
25	14891	0.0000009655	6
25	14932	0.0000009685	6
25	14973	0.0000009715	6
25	15014	0.0000009745	6
25	15055	0.0000009775	6
25	15096	0.0000009805	6
25	15137	0.0000009835	6
27	15178	0.0000009865	11
27	15219	0.0000009895	11
27	15261	0.0000009925	11
27	15308	0.0000009955	11
27	15362	0.0000009985	11
27	15417	0.0000010015	11
27	15472	0.0000010045	11
27	15527	0.0000010075	11
27	15582	0.0000010105	11
27	15637	0.0000010135	11
27	15692	0.0000010165	11
27	15747	0.0000010195	11
27	15802	0.0000010225	11
27	15857	0.0000010255	11
27	15912	0.0000010285	11
27	15967	0.0000010315	11
27	16022	0.0000010345	11
27	16077	0.0000010375	11
27	16132	0.0000010405	11
27	16187	0.0000010435	11
27	16242	0.0000010465	11
27	16297	0.0000010495	11
27	16352	0.0000010525	11
27	16407	0.0000010555	11
27	16462	0.0000010585	11
27	16517	0.0000010615	11
27	16572	0.0000010645	11
27	16627	0.0000010675	11
27	16682	0.0000010705	11
27	16737	0.0000010735	11
27	16792	0.0000010765	11
27	16847	0.0000010795	11
27	16902	0.0000010825	11
27	16957	0.0000010855	11
27	17012	0.0000010885	11
27	17067	0.0000010915	11
27	17122	0.0000010945	11
27	17177	0.0000010975	11
27	17232	0.0000011005	11
27	17287	0.0000011035	11
27	17342	0.0000011065	11
27	17397	0.0000011095	11
27	17452	0.0000011125	11
27	17507	0.0000011155	11
27	17562	0.0000011185	11
27	17617	0.0000011215	11
27	17672	0.0000011245	11
27	17727	0.0000011275	11
27	17782	0.0000011305	11
27	17837	0.0000011335	11
27	17892	0.0000011365	11
27	17947	0.0000011395	11
27	18002	0.0000011425	11
27	18057	0.0000011455	11
27	18112	0.0000011485	11
27	18167	0.0000011515	11
27	18222	0.0000011545	11
27	18277	0.0000011575	11
27	18332	0.0000011605	11
27	18387	0.0000011635	11
27	18442	0.0000011665	11
27	18497	0.0000011695	11
27	18552	0.0000011725	11
27	18607	0.0000011755	11
27	18662	0.0000011785	11
27	18717	0.0000011815	11
27	18772	0.0000011845	11
27	18827	0.0000011875	11
27	18882	0.0000011905	11
27	18937	0.0000011935	11
27	18992	0.0000011965	11
27	19047	0.0000011995	11
27	19102	0.0000012025	11
27	19157	0.0000012055	11
27	19212	0.0000012085	11
27	19267	0.0000012115	11
27	19322	0.0000012145	11
27	19377	0.0000012175	11
27	19432	0.0000012205	11
27	19487	0.0000012235	11
27	19542	0.0000012265	11
27	19597	0.0000012295	11
27	19652	0.0000012325	11
27	19707	0.0000012355	11
27	19762	0.0000012385	11
27	19817	0.0000012415	11
27	19872	0.0000012445	11
27	19927	0.0000012475	11
27	19982	0.0000012505	11
27	20037	0.0000012535	11
27	20092	0.0000012565	11
27	20147	0.0000012595	11
27	20202	0.0000012625	11
27	20257	0.0000012655	11
27	20312	0.0000012685	11
27	20367	0.0000012715	11
27	20422	0.0000012745	11
27	20477	0.0000012775	11
27	20532	0.0000012805	11
27	20587	0.0000012835	11
27	20642	0.0000012865	11
27	20697	0.0000012895	11
27	20752	0.0000012925	11
27	20807	0.0000012955	11
27	20862	0.0000012985	11
27	20917	0.0000013015	11
27	20972	0.0000013045	11
27	21027	0.0000013075	11
27	21082	0.0000013105	11
27	21137	0.0000013135	11
27	21192	0.0000013165	11
27	21247	0.0000013195	11
27	21302	0.0000013225	11
27	21357	0.0000013255	11
27	21412	0.0000013285	11
27	21467	0.0000013315	11
27	21522	0.0000013345	11
27	21577	0.0000013375	11
27	21632	0.0000013405	11
27	21687	0.0000013435	11
27	21742	0.0000013465	11
27	21797	0.0000013495	11
27	21852	0.0000013525	11
27	21907	0.0000013555	11
27	21962	0.0000013585	11
27	22017	0.0000013615	11
27	22072	0.0000013645	11
27	22127	0.0000013675	11
27	22182	0.0000013705	11
27	22237	0.0000013735	11
27	22292	0.0000013765	2
30	22347	0.0000013795	13
30	22402	0.0000013825	13
30	22458	0.0000013855	13
30	22526	0.0000013885	13
30	22601	0.0000013915	13
30	22677	0.0000013945	13
30	22753	0.0000013975	13
30	22829	0.0000014005	13
30	22905	0.0000014035	13
30	22981	0.0000014065	13
30	23057	0.0000014095	13
30	23133	0.0000014125	13
30	23209	0.0000014155	13
30	23285	0.0000014185	13
30	23361	0.0000014215	13
30	23437	0.0000014245	13
30	23513	0.0000014275	13
30	23589	0.0000014305	13
30	23665	0.0000014335	13
30	23741	0.0000014365	13
30	23817	0.0000014395	13
30	23893	0.0000014425	13
30	23969	0.0000014455	13
30	24039	0.0000014485	13
30	24102	0.0000014515	13
30	24164	0.0000014545	13
30	24226	0.0000014575	13
30	24288	0.0000014605	13
30	24350	0.0000014635	13
30	24412	0.0000014665	13
30	24474	0.0000014695	13
30	24536	0.0000014725	13
30	24598	0.0000014755	13
30	24660	0.0000014785	13
30	24722	0.0000014815	13
30	24784	0.0000014845	13
30	24846	0.0000014875	13
30	24908	0.0000014905	13
30	24970	0.0000014935	13
30	25032	0.0000014965	13
30	25094	0.0000014995	13
30	25156	0.0000015025	13
30	25218	0.0000015055	13
30	25280	0.0000015085	13
30	25342	0.0000015115	13
30	25404	0.0000015145	13
30	25466	0.0000015175	13
30	25528	0.0000015205	13
30	25590	0.0000015235	13
30	25652	0.0000015265	13
30	25714	0.0000015295	13
30	25776	0.0000015325	13
30	25838	0.0000015355	13
30	25900	0.0000015385	13
30	25962	0.0000015415	13
30	26024	0.0000015445	13
30	26086	0.0000015475	13
30	26148	0.0000015505	13
30	26210	0.0000015535	13
30	26272	0.0000015565	13
30	26334	0.0000015595	13
30	26396	0.0000015625	13
30	26458	0.0000015655	13
30	26520	0.0000015685	13
30	26582	0.0000015715	13
30	26644	0.0000015745	13
30	26706	0.0000015775	13
30	26768	0.0000015805	13
30	26830	0.0000015835	13
30	26892	0.0000015865	13
30	26954	0.0000015895	13
30	27016	0.0000015925	13
30	27078	0.0000015955	13
30	27140	0.0000015985	13
30	27203	0.0000016015	13
30	27265	0.0000016045	13
30	27327	0.0000016075	13
30	27389	0.0000016105	13
30	27451	0.0000016135	13
30	27513	0.0000016165	13
30	27575	0.0000016195	13
30	27637	0.0000016225	13
30	27699	0.0000016255	13
30	27761	0.0000016285	13
30	27823	0.0000016315	13
30	27885	0.0000016345	13
30	27947	0.0000016375	13
30	28009	0.0000016405	13
30	28071	0.0000016435	13
30	28133	0.0000016465	13
30	28195	0.0000016495	13
30	28257	0.0000016525	13
30	28319	0.0000016555	13
30	28381	0.0000016585	13
30	28443	0.0000016615	13
30	28505	0.0000016645	13
30	28567	0.0000016675	13
30	28629	0.0000016705	13
30	28691	0.0000016735	13
30	28754	0.0000016765	13
30	28816	0.0000016795	13
30	28878	0.0000016825	13
30	28940	0.0000016855	13
30	29002	0.0000016885	13
30	29064	0.0000016915	13
30	29126	0.0000016945	13
30	29188	0.0000016975	13
30	29250	0.0000017005	13
30	29312	0.0000017035	13
30	29374	0.0000017065	13
30	29436	0.0000017095	13
30	29498	0.0000017125	13
30	29560	0.0000017155	13
30	29622	0.0000017185	13
30	29684	0.0000017215	13
30	29746	0.0000017245	13
30	29808	0.0000017275	13
30	29870	0.0000017305	13
30	29932	0.0000017335	10
29	15262	0.0000009925	11
29	15309	0.0000009955	11
29	15363	0.0000009985	11
29	15418	0.0000010015	11
29	15473	0.0000010045	11
29	15528	0.0000010075	11
29	15583	0.0000010105	11
29	15638	0.0000010135	11
29	15693	0.0000010165	11
29	15748	0.0000010195	11
29	15803	0.0000010225	11
29	15858	0.0000010255	11
29	15913	0.0000010285	11
29	15968	0.0000010315	11
29	16023	0.0000010345	11
29	16078	0.0000010375	11
29	16133	0.0000010405	11
29	16188	0.0000010435	11
29	16243	0.0000010465	11
29	16298	0.0000010495	11
29	16353	0.0000010525	11
29	16408	0.0000010555	11
29	16463	0.0000010585	11
29	16518	0.0000010615	11
29	16573	0.0000010645	11
29	16628	0.0000010675	11
29	16683	0.0000010705	11
29	16738	0.0000010735	11
29	16793	0.0000010765	11
29	16848	0.0000010795	11
29	16903	0.0000010825	11
29	16958	0.0000010855	11
29	17013	0.0000010885	11
29	17068	0.0000010915	11
29	17123	0.0000010945	11
29	17178	0.0000010975	11
29	17233	0.0000011005	11
29	17288	0.0000011035	11
29	17343	0.0000011065	11
29	17398	0.0000011095	11
29	17453	0.0000011125	11
29	17508	0.0000011155	11
29	17563	0.0000011185	11
29	17618	0.0000011215	11
29	17673	0.0000011245	11
29	17728	0.0000011275	11
29	17783	0.0000011305	11
29	17838	0.0000011335	11
29	17893	0.0000011365	11
29	17948	0.0000011395	11
29	18003	0.0000011425	11
29	18058	0.0000011455	11
29	18113	0.0000011485	11
29	18168	0.0000011515	11
29	18223	0.0000011545	11
29	18278	0.0000011575	11
29	18333	0.0000011605	11
29	18388	0.0000011635	11
29	18443	0.0000011665	11
29	18498	0.0000011695	11
29	18553	0.0000011725	11
29	18608	0.0000011755	11
29	18663	0.0000011785	11
29	18718	0.0000011815	11
29	18773	0.0000011845	11
29	18828	0.0000011875	11
29	18883	0.0000011905	11
29	18938	0.0000011935	11
29	18993	0.0000011965	11
29	19048	0.0000011995	11
29	19103	0.0000012025	11
29	19158	0.0000012055	11
29	19213	0.0000012085	11
29	19268	0.0000012115	11
29	19323	0.0000012145	11
29	19378	0.0000012175	11
29	19433	0.0000012205	11
29	19488	0.0000012235	11
29	19543	0.0000012265	11
29	19598	0.0000012295	11
29	19653	0.0000012325	11
29	19708	0.0000012355	11
29	19763	0.0000012385	11
29	19818	0.0000012415	11
29	19873	0.0000012445	11
29	19928	0.0000012475	11
29	19983	0.0000012505	11
29	20038	0.0000012535	11
29	20093	0.0000012565	11
29	20148	0.0000012595	11
29	20203	0.0000012625	11
29	20258	0.0000012655	11
29	20313	0.0000012685	11
29	20368	0.0000012715	11
29	20423	0.0000012745	11
29	20478	0.0000012775	11
29	20533	0.0000012805	11
29	20588	0.0000012835	11
29	20643	0.0000012865	11
29	20698	0.0000012895	11
29	20753	0.0000012925	11
29	20808	0.0000012955	11
29	20863	0.0000012985	11
29	20918	0.0000013015	11
29	20973	0.0000013045	11
29	21028	0.0000013075	11
29	21083	0.0000013105	11
29	21138	0.0000013135	11
29	21193	0.0000013165	11
29	21248	0.0000013195	11
29	21303	0.0000013225	11
29	21358	0.0000013255	11
29	21413	0.0000013285	11
29	21468	0.0000013315	11
29	21523	0.0000013345	11
29	21578	0.0000013375	11
29	21633	0.0000013405	11
29	21688	0.0000013435	11
29	21743	0.0000013465	11
29	21798	0.0000013495	11
29	21853	0.0000013525	11
29	21908	0.0000013555	11
29	21963	0.0000013585	11
29	22018	0.0000013615	11
29	22073	0.0000013645	11
29	22128	0.0000013675	11
29	22183	0.0000013705	11
29	22238	0.0000013735	11
29	22293	0.0000013765	11
29	22348	0.0000013795	11
29	22403	0.0000013825	11
29	22459	0.0000013855	11
29	22527	0.0000013885	11
29	22602	0.0000013915	11
29	22678	0.0000013945	11
29	22754	0.0000013975	11
29	22830	0.0000014005	11
29	22906	0.0000014035	11
29	22982	0.0000014065	11
29	23058	0.0000014095	11
29	23134	0.0000014125	11
29	23210	0.0000014155	11
29	23286	0.0000014185	11
29	23362	0.0000014215	11
29	23438	0.0000014245	11
29	23514	0.0000014275	11
29	23590	0.0000014305	11
29	23666	0.0000014335	11
29	23742	0.0000014365	11
29	23818	0.0000014395	11
29	23894	0.0000014425	6
34	29994	0.0000017365	13
34	30056	0.0000017395	13
34	30118	0.0000017425	13
34	30187	0.0000017455	13
34	30262	0.0000017485	13
34	30338	0.0000017515	13
34	30414	0.0000017545	13
34	30490	0.0000017575	13
34	30566	0.0000017605	13
34	30642	0.0000017635	13
34	30718	0.0000017665	13
34	30794	0.0000017695	13
34	30870	0.0000017725	13